 vasp.6.4.1 05Apr23 (build Jun 05 2023 04:03:17) complex                        
  
 executed on      MichiganTechHPC date 2023.06.19  17:45:13
 running   32 mpi-ranks, on    2 nodes
 distrk:  each k-point on   32 cores,    1 groups
 distr:  one band on NCORE=   4 cores,    8 groups


--------------------------------------------------------------------------------------------------------


 INCAR:
   ISPIN = 2
   ICHARG = 11
   LORBIT = 11
   MAGMOM = 4*3.0 4*-3.0
   ENCUT = 700
   EDIFF = 1.0E-7
   NELM = 100
   ISMEAR = 0
   SIGMA = 0.02
   NPAR = 8
   GGA = PE

 POTCAR:    PAW_PBE Mn 06Sep2000                  
 POTCAR:    PAW_PBE Te 08Apr2002                  
 POTCAR:    PAW_PBE Mn 06Sep2000                  
   VRHFIN =Mn: d6 s1                                                                                
   LEXCH  = PE                                                                                      
   EATOM  =   416.7541 eV,   30.6306 Ry                                                             
                                                                                                    
   TITEL  = PAW_PBE Mn 06Sep2000                                                                    
   LULTRA =        F    use ultrasoft PP ?                                                          
   IUNSCR =        1    unscreen: 0-lin 1-nonlin 2-no                                               
   RPACOR =    2.000    partial core radius                                                         
   POMASS =   54.938; ZVAL   =    7.000    mass and valenz                                          
   RCORE  =    2.300    outmost cutoff radius                                                       
   RWIGS  =    2.500; RWIGS  =    1.323    wigner-seitz radius (au A)                               
   ENMAX  =  269.864; ENMIN  =  202.398 eV                                                          
   RCLOC  =    1.725    cutoff for local pot                                                        
   LCOR   =        T    correct aug charges                                                         
   LPAW   =        T    paw PP                                                                      
   EAUG   =  500.711                                                                                
   DEXC   =    0.000                                                                                
   RMAX   =    2.343    core radius for proj-oper                                                   
   RAUG   =    1.300    factor for augmentation sphere                                              
   RDEP   =    2.338    radius for radial grids                                                     
   RDEPT  =    1.911    core radius for aug-charge                                                  
                                                                                                    
   Atomic configuration                                                                             
    9 entries                                                                                       
     n  l   j            E        occ.                                                              
     1  0  0.50     -6424.8288   2.0000                                                             
     2  0  0.50      -739.1154   2.0000                                                             
     2  1  1.50      -625.3949   6.0000                                                             
     3  0  0.50       -81.6100   2.0000                                                             
     3  1  1.50       -50.4667   6.0000                                                             
     3  2  2.50        -3.3745   6.0000                                                             
     4  0  0.50        -4.1331   1.0000                                                             
     4  1  0.50        -4.0817   0.0000                                                             
     4  3  2.50        -1.3606   0.0000                                                             
   Description                                                                                      
     l       E           TYP  RCUT    TYP  RCUT                                                     
     2     -3.3744664     23  2.300                                                                 
     2     -4.7350490     23  2.300                                                                 
     0     -4.1331408     23  2.300                                                                 
     0      7.6656614     23  2.300                                                                 
     1     -2.7211652     23  2.300                                                                 
     1     20.4087390     23  2.300                                                                 
  local pseudopotential read in
  partial core-charges read in
  partial kinetic energy density read in
  atomic valenz-charges read in
  non local Contribution for L=           2  read in
    real space projection operators read in
  non local Contribution for L=           2  read in
    real space projection operators read in
  non local Contribution for L=           0  read in
    real space projection operators read in
  non local Contribution for L=           0  read in
    real space projection operators read in
  non local Contribution for L=           1  read in
    real space projection operators read in
  non local Contribution for L=           1  read in
    real space projection operators read in
    PAW grid and wavefunctions read in
 
   number of l-projection  operators is LMAX  =           6
   number of lm-projection operators is LMMAX =          18
 
 POTCAR:    PAW_PBE Te 08Apr2002                  
   VRHFIN =Te: s2p4                                                                                 
   LEXCH  = PE                                                                                      
   EATOM  =   223.2721 eV,   16.4100 Ry                                                             
                                                                                                    
   TITEL  = PAW_PBE Te 08Apr2002                                                                    
   LULTRA =        F    use ultrasoft PP ?                                                          
   IUNSCR =        1    unscreen: 0-lin 1-nonlin 2-no                                               
   RPACOR =    2.200    partial core radius                                                         
   POMASS =  127.600; ZVAL   =    6.000    mass and valenz                                          
   RCORE  =    2.300    outmost cutoff radius                                                       
   RWIGS  =    2.900; RWIGS  =    1.535    wigner-seitz radius (au A)                               
   ENMAX  =  174.982; ENMIN  =  131.236 eV                                                          
   ICORE  =        3    local potential                                                             
   LCOR   =        T    correct aug charges                                                         
   LPAW   =        T    paw PP                                                                      
   EAUG   =  368.792                                                                                
   DEXC   =    0.000                                                                                
   RMAX   =    2.345    core radius for proj-oper                                                   
   RAUG   =    1.300    factor for augmentation sphere                                              
   RDEP   =    2.397    radius for radial grids                                                     
   RDEPT  =    2.174    core radius for aug-charge                                                  
                                                                                                    
   Atomic configuration                                                                             
   13 entries                                                                                       
     n  l   j            E        occ.                                                              
     1  0  0.50    -31621.2075   2.0000                                                             
     2  0  0.50     -4848.7941   2.0000                                                             
     2  1  1.50     -4352.1960   6.0000                                                             
     3  0  0.50      -964.9612   2.0000                                                             
     3  1  1.50      -803.6179   6.0000                                                             
     3  2  2.50      -559.8710  10.0000                                                             
     4  0  0.50      -164.3522   2.0000                                                             
     4  1  1.50      -114.3756   6.0000                                                             
     4  2  2.50       -41.6483  10.0000                                                             
     5  0  0.50       -15.1072   2.0000                                                             
     5  1  0.50        -5.9526   4.0000                                                             
     5  2  1.50        -5.4423   0.0000                                                             
     4  3  2.50        -5.4423   0.0000                                                             
   Description                                                                                      
     l       E           TYP  RCUT    TYP  RCUT                                                     
     0    -15.1072389     23  2.300                                                                 
     0    -16.4678215     23  2.300                                                                 
     1     -5.9526306     23  2.300                                                                 
     1     -2.4873968     23  2.300                                                                 
     2     -5.4423304     23  2.300                                                                 
     3     -1.3605826     23  2.300                                                                 
  local pseudopotential read in
  partial core-charges read in
  partial kinetic energy density read in
  atomic valenz-charges read in
  non local Contribution for L=           0  read in
    real space projection operators read in
  non local Contribution for L=           0  read in
    real space projection operators read in
  non local Contribution for L=           1  read in
    real space projection operators read in
  non local Contribution for L=           1  read in
    real space projection operators read in
  non local Contribution for L=           2  read in
    real space projection operators read in
    PAW grid and wavefunctions read in
 
   number of l-projection  operators is LMAX  =           5
   number of lm-projection operators is LMMAX =          13
 
  PAW_PBE Mn 06Sep2000                  :
 energy of atom  1       EATOM= -416.7541
 kinetic energy error for atom=    0.0006 (will be added to EATOM!!)
  PAW_PBE Te 08Apr2002                  :
 energy of atom  2       EATOM= -223.2721
 kinetic energy error for atom=    0.0003 (will be added to EATOM!!)
 
 
 POSCAR: Mn4 Te4
  positions in direct lattice
  velocities in cartesian coordinates
 exchange correlation table for  LEXCH =        8
   RHO(1)=    0.500       N(1)  =     2000
   RHO(2)=  100.500       N(2)  =     4000
 


--------------------------------------------------------------------------------------------------------


 ion  position               nearest neighbor table
   1  0.000  0.000  0.000-   5 2.60   8 2.60   7 2.60   6 2.60
   2  0.000  0.500  0.500-   6 2.60   7 2.60   5 2.60   8 2.60
   3  0.500  0.000  0.500-   6 2.60   7 2.60   5 2.60   8 2.60
   4  0.500  0.500  0.000-   5 2.60   8 2.60   7 2.60   6 2.60
   5  0.750  0.250  0.750-   1 2.60   4 2.60   3 2.60   2 2.60
   6  0.750  0.750  0.250-   2 2.60   3 2.60   1 2.60   4 2.60
   7  0.250  0.250  0.250-   2 2.60   3 2.60   1 2.60   4 2.60
   8  0.250  0.750  0.750-   1 2.60   4 2.60   3 2.60   2 2.60
 
  LATTYP: Found a simple cubic cell.
 ALAT       =     6.0067168279
  
  Lattice vectors:
  
 A1 = (   6.0067168279,  -0.0000000000,   0.0000000000)
 A2 = (   0.0000000000,   6.0067168279,   0.0000000000)
 A3 = (   0.0000000000,   0.0000000000,   6.0067168279)


Analysis of symmetry for initial positions (statically):
=====================================================================
 Subroutine PRICEL returns following result:
 
  LATTYP: Found a face centered cubic cell.
 ALAT       =     6.0067168279
  
  Lattice vectors:
  
 A1 = (   3.0033584139,  -3.0033584139,   0.0000000000)
 A2 = (   3.0033584139,   0.0000000000,   3.0033584139)
 A3 = (   0.0000000000,  -3.0033584139,   3.0033584139)
 
   4 primitive cells build up your supercell.
 

 Routine SETGRP: Setting up the symmetry group for a 
 simple cubic supercell.


 Subroutine GETGRP returns: Found 24 space group operations
 (whereof 24 operations were pure point group operations)
 out of a pool of 48 trial point group operations.


The static configuration has the point symmetry T_d .


Analysis of symmetry for dynamics (positions and initial velocities):
=====================================================================
 Subroutine PRICEL returns following result:
 
  LATTYP: Found a face centered cubic cell.
 ALAT       =     6.0067168279
  
  Lattice vectors:
  
 A1 = (   3.0033584139,  -3.0033584139,   0.0000000000)
 A2 = (   3.0033584139,   0.0000000000,   3.0033584139)
 A3 = (   0.0000000000,  -3.0033584139,   3.0033584139)
 
   4 primitive cells build up your supercell.
 

 Routine SETGRP: Setting up the symmetry group for a 
 simple cubic supercell.


 Subroutine GETGRP returns: Found 24 space group operations
 (whereof 24 operations were pure point group operations)
 out of a pool of 48 trial point group operations.


The dynamic configuration has the point symmetry T_d .


Analysis of structural, dynamic, and magnetic symmetry:
=====================================================================
 Subroutine PRICEL returns following result:
 
  LATTYP: Found a face centered cubic cell.
 ALAT       =     6.0067168279
  
  Lattice vectors:
  
 A1 = (   3.0033584139,  -3.0033584139,   0.0000000000)
 A2 = (   3.0033584139,   0.0000000000,   3.0033584139)
 A3 = (   0.0000000000,  -3.0033584139,   3.0033584139)
 
   4 primitive cells build up your supercell.
 

 Routine SETGRP: Setting up the symmetry group for a 
 simple cubic supercell.


 Subroutine GETGRP returns: Found 24 space group operations
 (whereof 24 operations were pure point group operations)
 out of a pool of 48 trial point group operations.


The overall configuration has the point symmetry T_d .


 Subroutine INISYM returns: Found 24 space group operations
 (whereof 24 operations are pure point group operations),
 and found     4 'primitive' translations


----------------------------------------------------------------------------------------

                                     Primitive cell                                     

  volume of cell :      54.1816

  direct lattice vectors                    reciprocal lattice vectors
     3.003358414 -3.003358414  0.000000000     0.166480297 -0.166480297 -0.166480297
     3.003358414  0.000000000  3.003358414     0.166480297  0.166480297  0.166480297
     0.000000000 -3.003358414  3.003358414    -0.166480297 -0.166480297  0.166480297

  length of vectors
     4.247390202  4.247390202  4.247390202     0.288352332  0.288352332  0.288352332

  position of ions in fractional coordinates (direct lattice)
     0.000000000  0.000000000  0.000000000
     0.750000000  0.750000000  0.750000000

  ion indices of the primitive-cell ions
   primitive index   ion index
                 1           1
                 2           5

----------------------------------------------------------------------------------------

 
 
 KPOINTS: K-Points for bandstructure G-X-M-R-M    

Interpolating k-points between supplied coordinates.

 Line segments in fractional coordinates (reciprocal lattice):
    0.000000  0.000000  0.000000  ...  0.000000  0.500000  0.000000
    0.000000  0.500000  0.000000  ...  0.500000  0.500000  0.000000
    0.500000  0.500000  0.000000  ...  0.500000  0.500000  0.500000
    0.500000  0.500000  0.500000  ...  0.000000  0.000000  0.000000
    0.000000  0.000000  0.000000  ...  0.500000  0.500000  0.000000

 Generated    20 points on each line segment, for a total of    100 k-points:

 Following reciprocal coordinates:
            Coordinates               Weight
  0.000000  0.000000  0.000000      0.010000
  0.000000  0.026316  0.000000      0.010000
  0.000000  0.052632  0.000000      0.010000
  0.000000  0.078947  0.000000      0.010000
  0.000000  0.105263  0.000000      0.010000
  0.000000  0.131579  0.000000      0.010000
  0.000000  0.157895  0.000000      0.010000
  0.000000  0.184211  0.000000      0.010000
  0.000000  0.210526  0.000000      0.010000
  0.000000  0.236842  0.000000      0.010000
  0.000000  0.263158  0.000000      0.010000
  0.000000  0.289474  0.000000      0.010000
  0.000000  0.315789  0.000000      0.010000
  0.000000  0.342105  0.000000      0.010000
  0.000000  0.368421  0.000000      0.010000
  0.000000  0.394737  0.000000      0.010000
  0.000000  0.421053  0.000000      0.010000
  0.000000  0.447368  0.000000      0.010000
  0.000000  0.473684  0.000000      0.010000
  0.000000  0.500000  0.000000      0.010000
  0.000000  0.500000  0.000000      0.010000
  0.026316  0.500000  0.000000      0.010000
  0.052632  0.500000  0.000000      0.010000
  0.078947  0.500000  0.000000      0.010000
  0.105263  0.500000  0.000000      0.010000
  0.131579  0.500000  0.000000      0.010000
  0.157895  0.500000  0.000000      0.010000
  0.184211  0.500000  0.000000      0.010000
  0.210526  0.500000  0.000000      0.010000
  0.236842  0.500000  0.000000      0.010000
  0.263158  0.500000  0.000000      0.010000
  0.289474  0.500000  0.000000      0.010000
  0.315789  0.500000  0.000000      0.010000
  0.342105  0.500000  0.000000      0.010000
  0.368421  0.500000  0.000000      0.010000
  0.394737  0.500000  0.000000      0.010000
  0.421053  0.500000  0.000000      0.010000
  0.447368  0.500000  0.000000      0.010000
  0.473684  0.500000  0.000000      0.010000
  0.500000  0.500000  0.000000      0.010000
  0.500000  0.500000  0.000000      0.010000
  0.500000  0.500000  0.026316      0.010000
  0.500000  0.500000  0.052632      0.010000
  0.500000  0.500000  0.078947      0.010000
  0.500000  0.500000  0.105263      0.010000
  0.500000  0.500000  0.131579      0.010000
  0.500000  0.500000  0.157895      0.010000
  0.500000  0.500000  0.184211      0.010000
  0.500000  0.500000  0.210526      0.010000
  0.500000  0.500000  0.236842      0.010000
  0.500000  0.500000  0.263158      0.010000
  0.500000  0.500000  0.289474      0.010000
  0.500000  0.500000  0.315789      0.010000
  0.500000  0.500000  0.342105      0.010000
  0.500000  0.500000  0.368421      0.010000
  0.500000  0.500000  0.394737      0.010000
  0.500000  0.500000  0.421053      0.010000
  0.500000  0.500000  0.447368      0.010000
  0.500000  0.500000  0.473684      0.010000
  0.500000  0.500000  0.500000      0.010000
  0.500000  0.500000  0.500000      0.010000
  0.473684  0.473684  0.473684      0.010000
  0.447368  0.447368  0.447368      0.010000
  0.421053  0.421053  0.421053      0.010000
  0.394737  0.394737  0.394737      0.010000
  0.368421  0.368421  0.368421      0.010000
  0.342105  0.342105  0.342105      0.010000
  0.315789  0.315789  0.315789      0.010000
  0.289474  0.289474  0.289474      0.010000
  0.263158  0.263158  0.263158      0.010000
  0.236842  0.236842  0.236842      0.010000
  0.210526  0.210526  0.210526      0.010000
  0.184211  0.184211  0.184211      0.010000
  0.157895  0.157895  0.157895      0.010000
  0.131579  0.131579  0.131579      0.010000
  0.105263  0.105263  0.105263      0.010000
  0.078947  0.078947  0.078947      0.010000
  0.052632  0.052632  0.052632      0.010000
  0.026316  0.026316  0.026316      0.010000
  0.000000  0.000000  0.000000      0.010000
  0.000000  0.000000  0.000000      0.010000
  0.026316  0.026316  0.000000      0.010000
  0.052632  0.052632  0.000000      0.010000
  0.078947  0.078947  0.000000      0.010000
  0.105263  0.105263  0.000000      0.010000
  0.131579  0.131579  0.000000      0.010000
  0.157895  0.157895  0.000000      0.010000
  0.184211  0.184211  0.000000      0.010000
  0.210526  0.210526  0.000000      0.010000
  0.236842  0.236842  0.000000      0.010000
  0.263158  0.263158  0.000000      0.010000
  0.289474  0.289474  0.000000      0.010000
  0.315789  0.315789  0.000000      0.010000
  0.342105  0.342105  0.000000      0.010000
  0.368421  0.368421  0.000000      0.010000
  0.394737  0.394737  0.000000      0.010000
  0.421053  0.421053  0.000000      0.010000
  0.447368  0.447368  0.000000      0.010000
  0.473684  0.473684  0.000000      0.010000
  0.500000  0.500000  0.000000      0.010000

 Following cartesian coordinates:
            Coordinates               Weight
  0.000000  0.000000  0.000000      0.010000
  0.000000  0.004381  0.000000      0.010000
  0.000000  0.008762  0.000000      0.010000
  0.000000  0.013143  0.000000      0.010000
  0.000000  0.017524  0.000000      0.010000
  0.000000  0.021905  0.000000      0.010000
  0.000000  0.026286  0.000000      0.010000
  0.000000  0.030667  0.000000      0.010000
  0.000000  0.035048  0.000000      0.010000
  0.000000  0.039430  0.000000      0.010000
  0.000000  0.043811  0.000000      0.010000
  0.000000  0.048192  0.000000      0.010000
  0.000000  0.052573  0.000000      0.010000
  0.000000  0.056954  0.000000      0.010000
  0.000000  0.061335  0.000000      0.010000
  0.000000  0.065716  0.000000      0.010000
  0.000000  0.070097  0.000000      0.010000
  0.000000  0.074478  0.000000      0.010000
  0.000000  0.078859  0.000000      0.010000
  0.000000  0.083240  0.000000      0.010000
  0.000000  0.083240  0.000000      0.010000
  0.004381  0.083240  0.000000      0.010000
  0.008762  0.083240  0.000000      0.010000
  0.013143  0.083240  0.000000      0.010000
  0.017524  0.083240  0.000000      0.010000
  0.021905  0.083240  0.000000      0.010000
  0.026286  0.083240  0.000000      0.010000
  0.030667  0.083240  0.000000      0.010000
  0.035048  0.083240  0.000000      0.010000
  0.039430  0.083240  0.000000      0.010000
  0.043811  0.083240  0.000000      0.010000
  0.048192  0.083240  0.000000      0.010000
  0.052573  0.083240  0.000000      0.010000
  0.056954  0.083240  0.000000      0.010000
  0.061335  0.083240  0.000000      0.010000
  0.065716  0.083240  0.000000      0.010000
  0.070097  0.083240  0.000000      0.010000
  0.074478  0.083240  0.000000      0.010000
  0.078859  0.083240  0.000000      0.010000
  0.083240  0.083240  0.000000      0.010000
  0.083240  0.083240  0.000000      0.010000
  0.083240  0.083240  0.004381      0.010000
  0.083240  0.083240  0.008762      0.010000
  0.083240  0.083240  0.013143      0.010000
  0.083240  0.083240  0.017524      0.010000
  0.083240  0.083240  0.021905      0.010000
  0.083240  0.083240  0.026286      0.010000
  0.083240  0.083240  0.030667      0.010000
  0.083240  0.083240  0.035048      0.010000
  0.083240  0.083240  0.039430      0.010000
  0.083240  0.083240  0.043811      0.010000
  0.083240  0.083240  0.048192      0.010000
  0.083240  0.083240  0.052573      0.010000
  0.083240  0.083240  0.056954      0.010000
  0.083240  0.083240  0.061335      0.010000
  0.083240  0.083240  0.065716      0.010000
  0.083240  0.083240  0.070097      0.010000
  0.083240  0.083240  0.074478      0.010000
  0.083240  0.083240  0.078859      0.010000
  0.083240  0.083240  0.083240      0.010000
  0.083240  0.083240  0.083240      0.010000
  0.078859  0.078859  0.078859      0.010000
  0.074478  0.074478  0.074478      0.010000
  0.070097  0.070097  0.070097      0.010000
  0.065716  0.065716  0.065716      0.010000
  0.061335  0.061335  0.061335      0.010000
  0.056954  0.056954  0.056954      0.010000
  0.052573  0.052573  0.052573      0.010000
  0.048192  0.048192  0.048192      0.010000
  0.043811  0.043811  0.043811      0.010000
  0.039430  0.039430  0.039430      0.010000
  0.035048  0.035048  0.035048      0.010000
  0.030667  0.030667  0.030667      0.010000
  0.026286  0.026286  0.026286      0.010000
  0.021905  0.021905  0.021905      0.010000
  0.017524  0.017524  0.017524      0.010000
  0.013143  0.013143  0.013143      0.010000
  0.008762  0.008762  0.008762      0.010000
  0.004381  0.004381  0.004381      0.010000
  0.000000  0.000000  0.000000      0.010000
  0.000000  0.000000  0.000000      0.010000
  0.004381  0.004381  0.000000      0.010000
  0.008762  0.008762  0.000000      0.010000
  0.013143  0.013143  0.000000      0.010000
  0.017524  0.017524  0.000000      0.010000
  0.021905  0.021905  0.000000      0.010000
  0.026286  0.026286  0.000000      0.010000
  0.030667  0.030667  0.000000      0.010000
  0.035048  0.035048  0.000000      0.010000
  0.039430  0.039430  0.000000      0.010000
  0.043811  0.043811  0.000000      0.010000
  0.048192  0.048192  0.000000      0.010000
  0.052573  0.052573  0.000000      0.010000
  0.056954  0.056954  0.000000      0.010000
  0.061335  0.061335  0.000000      0.010000
  0.065716  0.065716  0.000000      0.010000
  0.070097  0.070097  0.000000      0.010000
  0.074478  0.074478  0.000000      0.010000
  0.078859  0.078859  0.000000      0.010000
  0.083240  0.083240  0.000000      0.010000
 


--------------------------------------------------------------------------------------------------------




 Dimension of arrays:
   k-points           NKPTS =    100   k-points in BZ     NKDIM =    100   number of bands    NBANDS=     32
   number of dos      NEDOS =    301   number of ions     NIONS =      8
   non local maximal  LDIM  =      6   non local SUM 2l+1 LMDIM =     18
   total plane-waves  NPLWV =  64000
   max r-space proj   IRMAX =      1   max aug-charges    IRDMAX=  17373
   dimension x,y,z NGX =    40 NGY =   40 NGZ =   40
   dimension x,y,z NGXF=    80 NGYF=   80 NGZF=   80
   support grid    NGXF=    80 NGYF=   80 NGZF=   80
   ions per type =               4   4
   NGX,Y,Z   is equivalent  to a cutoff of  11.07, 11.07, 11.07 a.u.
   NGXF,Y,Z  is equivalent  to a cutoff of  22.14, 22.14, 22.14 a.u.

 SYSTEM =  unknown system                          
 POSCAR =  Mn4 Te4                                 

 Startparameter for this run:
   NWRITE =      2    write-flag & timer
   PREC   = normal    normal or accurate (medium, high low for compatibility)
   ISTART =      1    job   : 0-new  1-cont  2-samecut
   ICHARG =     11    charge: 1-file 2-atom 10-const
   ISPIN  =      2    spin polarized calculation?
   LNONCOLLINEAR =      F non collinear calculations
   LSORBIT =      F    spin-orbit coupling
   INIWAV =      1    electr: 0-lowe 1-rand  2-diag
   LASPH  =      F    aspherical Exc in radial PAW
 Electronic Relaxation 1
   ENCUT  =  700.0 eV  51.45 Ry    7.17 a.u.  12.96 12.96 12.96*2*pi/ulx,y,z
   ENINI  =  700.0     initial cutoff
   ENAUG  =  500.7 eV  augmentation charge cutoff
   NELM   =    100;   NELMIN=  2; NELMDL=  0     # of ELM steps 
   EDIFF  = 0.1E-06   stopping-criterion for ELM
   LREAL  =      F    real-space projection
   NLSPLINE    = F    spline interpolate recip. space projectors
   LCOMPAT=      F    compatible to vasp.4.4
   GGA_COMPAT  = T    GGA compatible to vasp.4.4-vasp.4.6
   LMAXPAW     = -100 max onsite density
   LMAXMIX     =    2 max onsite mixed and CHGCAR
   VOSKOWN=      0    Vosko Wilk Nusair interpolation
   ROPT   =    0.00000   0.00000
 Ionic relaxation
   EDIFFG = 0.1E-05   stopping-criterion for IOM
   NSW    =      0    number of steps for IOM
   NBLOCK =      1;   KBLOCK =      1    inner block; outer block 
   IBRION =     -1    ionic relax: 0-MD 1-quasi-New 2-CG
   NFREE  =      0    steps in history (QN), initial steepest desc. (CG)
   ISIF   =      2    stress and relaxation
   IWAVPR =     10    prediction:  0-non 1-charg 2-wave 3-comb
   ISYM   =      2    0-nonsym 1-usesym 2-fastsym
   LCORR  =      T    Harris-Foulkes like correction to forces

   POTIM  = 0.5000    time-step for ionic-motion
   TEIN   =    0.0    initial temperature
   TEBEG  =    0.0;   TEEND  =   0.0 temperature during run
   SMASS  =  -3.00    Nose mass-parameter (am)
   estimated Nose-frequenzy (Omega)   =  0.10E-29 period in steps = 0.13E+47 mass=  -0.825E-27a.u.
   SCALEE = 1.0000    scale energy and forces
   NPACO  =    256;   APACO  = 10.0  distance and # of slots for P.C.
   PSTRESS=    0.0 pullay stress

  Mass of Ions in am
   POMASS =  54.94127.60
  Ionic Valenz
   ZVAL   =   7.00  6.00
  Atomic Wigner-Seitz radii
   RWIGS  =  -1.00 -1.00
  virtual crystal weights 
   VCA    =   1.00  1.00
   NELECT =      52.0000    total number of electrons
   NUPDOWN=      -1.0000    fix difference up-down

 DOS related values:
   EMIN   =  10.00;   EMAX   =-10.00  energy-range for DOS
   EFERMI =   0.00;   METHOD = LEGACY      
   ISMEAR =     0;   SIGMA  =   0.02  broadening in eV -4-tet -1-fermi 0-gaus

 Electronic relaxation 2 (details)
   IALGO  =     38    algorithm
   LDIAG  =      T    sub-space diagonalisation (order eigenvalues)
   LSUBROT=      F    optimize rotation matrix (better conditioning)
   TURBO    =      0    0=normal 1=particle mesh
   IRESTART =      0    0=no restart 2=restart with 2 vectors
   NREBOOT  =      0    no. of reboots
   NMIN     =      0    reboot dimension
   EREF     =   0.00    reference energy to select bands
   IMIX   =      4    mixing-type and parameters
     AMIX     =   0.40;   BMIX     =  1.00
     AMIX_MAG =   1.60;   BMIX_MAG =  1.00
     AMIN     =   0.10
     WC   =   100.;   INIMIX=   1;  MIXPRE=   1;  MAXMIX= -45

 Intra band minimization:
   WEIMIN = 0.0000     energy-eigenvalue tresh-hold
   EBREAK =  0.78E-09  absolut break condition
   DEPER  =   0.30     relativ break condition  

   TIME   =   0.40     timestep for ELM

  volume/ion in A,a.u.               =      27.09       182.82
  Fermi-wavevector in a.u.,A,eV,Ry     =   1.017276  1.922373 14.079995  1.034850
  Thomas-Fermi vector in A             =   2.150668
 
 Write flags
   LWAVE        =      T    write WAVECAR
   LDOWNSAMPLE  =      F    k-point downsampling of WAVECAR
   LCHARG       =      T    write CHGCAR
   LVTOT        =      F    write LOCPOT, total local potential
   LVHAR        =      F    write LOCPOT, Hartree potential only
   LELF         =      F    write electronic localiz. function (ELF)
   LORBIT       =     11    0 simple, 1 ext, 2 COOP (PROOUT), +10 PAW based schemes


 Dipole corrections
   LMONO  =      F    monopole corrections only (constant potential shift)
   LDIPOL =      F    correct potential (dipole corrections)
   IDIPOL =      0    1-x, 2-y, 3-z, 4-all directions 
   EPSILON=  1.0000000 bulk dielectric constant

 Exchange correlation treatment:
   GGA     =    PE    GGA type
   LEXCH   =     8    internal setting for exchange type
   LIBXC   =     F    Libxc                    
   VOSKOWN =     0    Vosko Wilk Nusair interpolation
   LHFCALC =     F    Hartree Fock is set to
   LHFONE  =     F    Hartree Fock one center treatment
   AEXX    =    0.0000 exact exchange contribution

 Linear response parameters
   LEPSILON=     F    determine dielectric tensor
   LRPA    =     F    only Hartree local field effects (RPA)
   LNABLA  =     F    use nabla operator in PAW spheres
   LVEL    =     F    velocity operator in full k-point grid
   CSHIFT  =0.1000    complex shift for real part using Kramers Kronig
   OMEGAMAX=  -1.0    maximum frequency
   DEG_THRESHOLD= 0.2000000E-02 threshold for treating states as degnerate
   RTIME   =   -0.100 relaxation time in fs
  (WPLASMAI=    0.000 imaginary part of plasma frequency in eV, 0.658/RTIME)
   DFIELD  = 0.0000000 0.0000000 0.0000000 field for delta impulse in time
 
  Optional k-point grid parameters
   LKPOINTS_OPT  =     F    use optional k-point grid
   KPOINTS_OPT_MODE=     1    mode for optional k-point grid
 
 Orbital magnetization related:
   ORBITALMAG=     F  switch on orbital magnetization
   LCHIMAG   =     F  perturbation theory with respect to B field
   DQ        =  0.001000  dq finite difference perturbation B field
   LLRAUG    =     F  two centre corrections for induced B field
   LBONE     =     F  B-component reconstruction in AE one-centre
   LVGVCALC  =     T  calculate vGv susceptibility
   LVGVAPPL  =     F  apply vGv susceptibility instead of pGv for G=0

 Random number generation:
   RANDOM_GENERATOR = DEFAULT
   PCG_SEED         = not used


--------------------------------------------------------------------------------------------------------


 Static calculation
 charge density and potential remain constant during run
 spin polarized calculation
 Variant of blocked Davidson
 Davidson routine will perform the subspace rotation
 perform sub-space diagonalisation
    after iterative eigenvector-optimisation
 no mixing
 using additional bands            6
 reciprocal scheme for non local part
 use partial core corrections
 calculate Harris-corrections to forces 
   (improved forces if not selfconsistent)
 use gradient corrections 
 WARNING: stress and forces are not correct
  (second derivative of E(xc) not defined)
 use of overlap-Matrix (Vanderbilt PP)
 Gauss-broadening in eV      SIGMA  =   0.02


--------------------------------------------------------------------------------------------------------


  energy-cutoff  :      700.00
  volume of cell :      216.73
      direct lattice vectors                 reciprocal lattice vectors
     6.006716828 -0.000000000  0.000000000     0.166480297 -0.000000000  0.000000000
     0.000000000  6.006716828  0.000000000     0.000000000  0.166480297  0.000000000
     0.000000000  0.000000000  6.006716828    -0.000000000 -0.000000000  0.166480297

  length of vectors
     6.006716828  6.006716828  6.006716828     0.166480297  0.166480297  0.166480297


 
 old parameters found on file WAVECAR:
  energy-cutoff  :      700.00
  volume of cell :      216.73
      direct lattice vectors                 reciprocal lattice vectors
     6.006716828 -0.000000000  0.000000000     0.166480297 -0.000000000  0.000000000
     0.000000000  6.006716828  0.000000000     0.000000000  0.166480297  0.000000000
     0.000000000  0.000000000  6.006716828    -0.000000000 -0.000000000  0.166480297

  length of vectors

 
 k-points in units of 2pi/SCALE and weight: K-Points for bandstructure G-X-M-R-M    
   0.00000000  0.00000000  0.00000000       0.010
   0.00000000  0.00438106  0.00000000       0.010
   0.00000000  0.00876212  0.00000000       0.010
   0.00000000  0.01314318  0.00000000       0.010
   0.00000000  0.01752424  0.00000000       0.010
   0.00000000  0.02190530  0.00000000       0.010
   0.00000000  0.02628636  0.00000000       0.010
   0.00000000  0.03066742  0.00000000       0.010
   0.00000000  0.03504848  0.00000000       0.010
   0.00000000  0.03942954  0.00000000       0.010
   0.00000000  0.04381060  0.00000000       0.010
   0.00000000  0.04819166  0.00000000       0.010
   0.00000000  0.05257273  0.00000000       0.010
   0.00000000  0.05695379  0.00000000       0.010
   0.00000000  0.06133485  0.00000000       0.010
   0.00000000  0.06571591  0.00000000       0.010
   0.00000000  0.07009697  0.00000000       0.010
   0.00000000  0.07447803  0.00000000       0.010
   0.00000000  0.07885909  0.00000000       0.010
   0.00000000  0.08324015  0.00000000       0.010
   0.00000000  0.08324015  0.00000000       0.010
   0.00438106  0.08324015  0.00000000       0.010
   0.00876212  0.08324015  0.00000000       0.010
   0.01314318  0.08324015  0.00000000       0.010
   0.01752424  0.08324015  0.00000000       0.010
   0.02190530  0.08324015  0.00000000       0.010
   0.02628636  0.08324015  0.00000000       0.010
   0.03066742  0.08324015  0.00000000       0.010
   0.03504848  0.08324015  0.00000000       0.010
   0.03942954  0.08324015  0.00000000       0.010
   0.04381060  0.08324015  0.00000000       0.010
   0.04819166  0.08324015  0.00000000       0.010
   0.05257273  0.08324015  0.00000000       0.010
   0.05695379  0.08324015  0.00000000       0.010
   0.06133485  0.08324015  0.00000000       0.010
   0.06571591  0.08324015  0.00000000       0.010
   0.07009697  0.08324015  0.00000000       0.010
   0.07447803  0.08324015  0.00000000       0.010
   0.07885909  0.08324015  0.00000000       0.010
   0.08324015  0.08324015  0.00000000       0.010
   0.08324015  0.08324015  0.00000000       0.010
   0.08324015  0.08324015  0.00438106       0.010
   0.08324015  0.08324015  0.00876212       0.010
   0.08324015  0.08324015  0.01314318       0.010
   0.08324015  0.08324015  0.01752424       0.010
   0.08324015  0.08324015  0.02190530       0.010
   0.08324015  0.08324015  0.02628636       0.010
   0.08324015  0.08324015  0.03066742       0.010
   0.08324015  0.08324015  0.03504848       0.010
   0.08324015  0.08324015  0.03942954       0.010
   0.08324015  0.08324015  0.04381060       0.010
   0.08324015  0.08324015  0.04819166       0.010
   0.08324015  0.08324015  0.05257273       0.010
   0.08324015  0.08324015  0.05695379       0.010
   0.08324015  0.08324015  0.06133485       0.010
   0.08324015  0.08324015  0.06571591       0.010
   0.08324015  0.08324015  0.07009697       0.010
   0.08324015  0.08324015  0.07447803       0.010
   0.08324015  0.08324015  0.07885909       0.010
   0.08324015  0.08324015  0.08324015       0.010
   0.08324015  0.08324015  0.08324015       0.010
   0.07885909  0.07885909  0.07885909       0.010
   0.07447803  0.07447803  0.07447803       0.010
   0.07009697  0.07009697  0.07009697       0.010
   0.06571591  0.06571591  0.06571591       0.010
   0.06133485  0.06133485  0.06133485       0.010
   0.05695379  0.05695379  0.05695379       0.010
   0.05257273  0.05257273  0.05257273       0.010
   0.04819166  0.04819166  0.04819166       0.010
   0.04381060  0.04381060  0.04381060       0.010
   0.03942954  0.03942954  0.03942954       0.010
   0.03504848  0.03504848  0.03504848       0.010
   0.03066742  0.03066742  0.03066742       0.010
   0.02628636  0.02628636  0.02628636       0.010
   0.02190530  0.02190530  0.02190530       0.010
   0.01752424  0.01752424  0.01752424       0.010
   0.01314318  0.01314318  0.01314318       0.010
   0.00876212  0.00876212  0.00876212       0.010
   0.00438106  0.00438106  0.00438106       0.010
   0.00000000  0.00000000  0.00000000       0.010
   0.00000000  0.00000000  0.00000000       0.010
   0.00438106  0.00438106  0.00000000       0.010
   0.00876212  0.00876212  0.00000000       0.010
   0.01314318  0.01314318  0.00000000       0.010
   0.01752424  0.01752424  0.00000000       0.010
   0.02190530  0.02190530  0.00000000       0.010
   0.02628636  0.02628636  0.00000000       0.010
   0.03066742  0.03066742  0.00000000       0.010
   0.03504848  0.03504848  0.00000000       0.010
   0.03942954  0.03942954  0.00000000       0.010
   0.04381060  0.04381060  0.00000000       0.010
   0.04819166  0.04819166  0.00000000       0.010
   0.05257273  0.05257273  0.00000000       0.010
   0.05695379  0.05695379  0.00000000       0.010
   0.06133485  0.06133485  0.00000000       0.010
   0.06571591  0.06571591  0.00000000       0.010
   0.07009697  0.07009697  0.00000000       0.010
   0.07447803  0.07447803  0.00000000       0.010
   0.07885909  0.07885909  0.00000000       0.010
   0.08324015  0.08324015  0.00000000       0.010
 
 k-points in reciprocal lattice and weights: K-Points for bandstructure G-X-M-R-M    
   0.00000000  0.00000000  0.00000000       0.010
   0.00000000  0.02631579  0.00000000       0.010
   0.00000000  0.05263158  0.00000000       0.010
   0.00000000  0.07894737  0.00000000       0.010
   0.00000000  0.10526316  0.00000000       0.010
   0.00000000  0.13157895  0.00000000       0.010
   0.00000000  0.15789474  0.00000000       0.010
   0.00000000  0.18421053  0.00000000       0.010
   0.00000000  0.21052632  0.00000000       0.010
   0.00000000  0.23684211  0.00000000       0.010
   0.00000000  0.26315789  0.00000000       0.010
   0.00000000  0.28947368  0.00000000       0.010
   0.00000000  0.31578947  0.00000000       0.010
   0.00000000  0.34210526  0.00000000       0.010
   0.00000000  0.36842105  0.00000000       0.010
   0.00000000  0.39473684  0.00000000       0.010
   0.00000000  0.42105263  0.00000000       0.010
   0.00000000  0.44736842  0.00000000       0.010
   0.00000000  0.47368421  0.00000000       0.010
   0.00000000  0.50000000  0.00000000       0.010
   0.00000000  0.50000000  0.00000000       0.010
   0.02631579  0.50000000  0.00000000       0.010
   0.05263158  0.50000000  0.00000000       0.010
   0.07894737  0.50000000  0.00000000       0.010
   0.10526316  0.50000000  0.00000000       0.010
   0.13157895  0.50000000  0.00000000       0.010
   0.15789474  0.50000000  0.00000000       0.010
   0.18421053  0.50000000  0.00000000       0.010
   0.21052632  0.50000000  0.00000000       0.010
   0.23684211  0.50000000  0.00000000       0.010
   0.26315789  0.50000000  0.00000000       0.010
   0.28947368  0.50000000  0.00000000       0.010
   0.31578947  0.50000000  0.00000000       0.010
   0.34210526  0.50000000  0.00000000       0.010
   0.36842105  0.50000000  0.00000000       0.010
   0.39473684  0.50000000  0.00000000       0.010
   0.42105263  0.50000000  0.00000000       0.010
   0.44736842  0.50000000  0.00000000       0.010
   0.47368421  0.50000000  0.00000000       0.010
   0.50000000  0.50000000  0.00000000       0.010
   0.50000000  0.50000000  0.00000000       0.010
   0.50000000  0.50000000  0.02631579       0.010
   0.50000000  0.50000000  0.05263158       0.010
   0.50000000  0.50000000  0.07894737       0.010
   0.50000000  0.50000000  0.10526316       0.010
   0.50000000  0.50000000  0.13157895       0.010
   0.50000000  0.50000000  0.15789474       0.010
   0.50000000  0.50000000  0.18421053       0.010
   0.50000000  0.50000000  0.21052632       0.010
   0.50000000  0.50000000  0.23684211       0.010
   0.50000000  0.50000000  0.26315789       0.010
   0.50000000  0.50000000  0.28947368       0.010
   0.50000000  0.50000000  0.31578947       0.010
   0.50000000  0.50000000  0.34210526       0.010
   0.50000000  0.50000000  0.36842105       0.010
   0.50000000  0.50000000  0.39473684       0.010
   0.50000000  0.50000000  0.42105263       0.010
   0.50000000  0.50000000  0.44736842       0.010
   0.50000000  0.50000000  0.47368421       0.010
   0.50000000  0.50000000  0.50000000       0.010
   0.50000000  0.50000000  0.50000000       0.010
   0.47368421  0.47368421  0.47368421       0.010
   0.44736842  0.44736842  0.44736842       0.010
   0.42105263  0.42105263  0.42105263       0.010
   0.39473684  0.39473684  0.39473684       0.010
   0.36842105  0.36842105  0.36842105       0.010
   0.34210526  0.34210526  0.34210526       0.010
   0.31578947  0.31578947  0.31578947       0.010
   0.28947368  0.28947368  0.28947368       0.010
   0.26315789  0.26315789  0.26315789       0.010
   0.23684211  0.23684211  0.23684211       0.010
   0.21052632  0.21052632  0.21052632       0.010
   0.18421053  0.18421053  0.18421053       0.010
   0.15789474  0.15789474  0.15789474       0.010
   0.13157895  0.13157895  0.13157895       0.010
   0.10526316  0.10526316  0.10526316       0.010
   0.07894737  0.07894737  0.07894737       0.010
   0.05263158  0.05263158  0.05263158       0.010
   0.02631579  0.02631579  0.02631579       0.010
   0.00000000  0.00000000  0.00000000       0.010
   0.00000000  0.00000000  0.00000000       0.010
   0.02631579  0.02631579  0.00000000       0.010
   0.05263158  0.05263158  0.00000000       0.010
   0.07894737  0.07894737  0.00000000       0.010
   0.10526316  0.10526316  0.00000000       0.010
   0.13157895  0.13157895  0.00000000       0.010
   0.15789474  0.15789474  0.00000000       0.010
   0.18421053  0.18421053  0.00000000       0.010
   0.21052632  0.21052632  0.00000000       0.010
   0.23684211  0.23684211  0.00000000       0.010
   0.26315789  0.26315789  0.00000000       0.010
   0.28947368  0.28947368  0.00000000       0.010
   0.31578947  0.31578947  0.00000000       0.010
   0.34210526  0.34210526  0.00000000       0.010
   0.36842105  0.36842105  0.00000000       0.010
   0.39473684  0.39473684  0.00000000       0.010
   0.42105263  0.42105263  0.00000000       0.010
   0.44736842  0.44736842  0.00000000       0.010
   0.47368421  0.47368421  0.00000000       0.010
   0.50000000  0.50000000  0.00000000       0.010
 
 position of ions in fractional coordinates (direct lattice) 
   0.00000000  0.00000000  0.00000000
   0.00000000  0.50000000  0.50000000
   0.50000000  0.00000000  0.50000000
   0.50000000  0.50000000  0.00000000
   0.75000000  0.25000000  0.75000000
   0.75000000  0.75000000  0.25000000
   0.25000000  0.25000000  0.25000000
   0.25000000  0.75000000  0.75000000
 
 position of ions in cartesian coordinates  (Angst):
   0.00000000  0.00000000  0.00000000
   0.00000000  3.00335841  3.00335841
   3.00335841 -0.00000000  3.00335841
   3.00335841  3.00335841  0.00000000
   4.50503762  1.50167921  4.50503762
   4.50503762  4.50503762  1.50167921
   1.50167921  1.50167921  1.50167921
   1.50167921  4.50503762  4.50503762
 


--------------------------------------------------------------------------------------------------------


 k-point   1 :   0.0000 0.0000 0.0000  plane waves:    9045
 k-point   2 :   0.0000 0.0263 0.0000  plane waves:    9069
 k-point   3 :   0.0000 0.0526 0.0000  plane waves:    9082
 k-point   4 :   0.0000 0.0789 0.0000  plane waves:    9082
 k-point   5 :   0.0000 0.1053 0.0000  plane waves:    9090
 k-point   6 :   0.0000 0.1316 0.0000  plane waves:    9098
 k-point   7 :   0.0000 0.1579 0.0000  plane waves:    9082
 k-point   8 :   0.0000 0.1842 0.0000  plane waves:    9074
 k-point   9 :   0.0000 0.2105 0.0000  plane waves:    9078
 k-point  10 :   0.0000 0.2368 0.0000  plane waves:    9126
 k-point  11 :   0.0000 0.2632 0.0000  plane waves:    9118
 k-point  12 :   0.0000 0.2895 0.0000  plane waves:    9102
 k-point  13 :   0.0000 0.3158 0.0000  plane waves:    9094
 k-point  14 :   0.0000 0.3421 0.0000  plane waves:    9094
 k-point  15 :   0.0000 0.3684 0.0000  plane waves:    9094
 k-point  16 :   0.0000 0.3947 0.0000  plane waves:    9090
 k-point  17 :   0.0000 0.4211 0.0000  plane waves:    9074
 k-point  18 :   0.0000 0.4474 0.0000  plane waves:    9078
 k-point  19 :   0.0000 0.4737 0.0000  plane waves:    9086
 k-point  20 :   0.0000 0.5000 0.0000  plane waves:    9074
 k-point  21 :   0.0000 0.5000 0.0000  plane waves:    9074
 k-point  22 :   0.0263 0.5000 0.0000  plane waves:    9086
 k-point  23 :   0.0526 0.5000 0.0000  plane waves:    9078
 k-point  24 :   0.0789 0.5000 0.0000  plane waves:    9086
 k-point  25 :   0.1053 0.5000 0.0000  plane waves:    9090
 k-point  26 :   0.1316 0.5000 0.0000  plane waves:    9100
 k-point  27 :   0.1579 0.5000 0.0000  plane waves:    9106
 k-point  28 :   0.1842 0.5000 0.0000  plane waves:    9102
 k-point  29 :   0.2105 0.5000 0.0000  plane waves:    9102
 k-point  30 :   0.2368 0.5000 0.0000  plane waves:    9108
 k-point  31 :   0.2632 0.5000 0.0000  plane waves:    9112
 k-point  32 :   0.2895 0.5000 0.0000  plane waves:    9120
 k-point  33 :   0.3158 0.5000 0.0000  plane waves:    9116
 k-point  34 :   0.3421 0.5000 0.0000  plane waves:    9120
 k-point  35 :   0.3684 0.5000 0.0000  plane waves:    9124
 k-point  36 :   0.3947 0.5000 0.0000  plane waves:    9128
 k-point  37 :   0.4211 0.5000 0.0000  plane waves:    9124
 k-point  38 :   0.4474 0.5000 0.0000  plane waves:    9134
 k-point  39 :   0.4737 0.5000 0.0000  plane waves:    9126
 k-point  40 :   0.5000 0.5000 0.0000  plane waves:    9124
 k-point  41 :   0.5000 0.5000 0.0000  plane waves:    9124
 k-point  42 :   0.5000 0.5000 0.0263  plane waves:    9120
 k-point  43 :   0.5000 0.5000 0.0526  plane waves:    9144
 k-point  44 :   0.5000 0.5000 0.0789  plane waves:    9156
 k-point  45 :   0.5000 0.5000 0.1053  plane waves:    9140
 k-point  46 :   0.5000 0.5000 0.1316  plane waves:    9140
 k-point  47 :   0.5000 0.5000 0.1579  plane waves:    9128
 k-point  48 :   0.5000 0.5000 0.1842  plane waves:    9140
 k-point  49 :   0.5000 0.5000 0.2105  plane waves:    9124
 k-point  50 :   0.5000 0.5000 0.2368  plane waves:    9136
 k-point  51 :   0.5000 0.5000 0.2632  plane waves:    9144
 k-point  52 :   0.5000 0.5000 0.2895  plane waves:    9124
 k-point  53 :   0.5000 0.5000 0.3158  plane waves:    9124
 k-point  54 :   0.5000 0.5000 0.3421  plane waves:    9116
 k-point  55 :   0.5000 0.5000 0.3684  plane waves:    9136
 k-point  56 :   0.5000 0.5000 0.3947  plane waves:    9136
 k-point  57 :   0.5000 0.5000 0.4211  plane waves:    9136
 k-point  58 :   0.5000 0.5000 0.4474  plane waves:    9148
 k-point  59 :   0.5000 0.5000 0.4737  plane waves:    9104
 k-point  60 :   0.5000 0.5000 0.5000  plane waves:    9104
 k-point  61 :   0.5000 0.5000 0.5000  plane waves:    9104
 k-point  62 :   0.4737 0.4737 0.4737  plane waves:    9138
 k-point  63 :   0.4474 0.4474 0.4474  plane waves:    9156
 k-point  64 :   0.4211 0.4211 0.4211  plane waves:    9162
 k-point  65 :   0.3947 0.3947 0.3947  plane waves:    9138
 k-point  66 :   0.3684 0.3684 0.3684  plane waves:    9138
 k-point  67 :   0.3421 0.3421 0.3421  plane waves:    9120
 k-point  68 :   0.3158 0.3158 0.3158  plane waves:    9114
 k-point  69 :   0.2895 0.2895 0.2895  plane waves:    9126
 k-point  70 :   0.2632 0.2632 0.2632  plane waves:    9123
 k-point  71 :   0.2368 0.2368 0.2368  plane waves:    9126
 k-point  72 :   0.2105 0.2105 0.2105  plane waves:    9129
 k-point  73 :   0.1842 0.1842 0.1842  plane waves:    9126
 k-point  74 :   0.1579 0.1579 0.1579  plane waves:    9120
 k-point  75 :   0.1316 0.1316 0.1316  plane waves:    9105
 k-point  76 :   0.1053 0.1053 0.1053  plane waves:    9114
 k-point  77 :   0.0789 0.0789 0.0789  plane waves:    9090
 k-point  78 :   0.0526 0.0526 0.0526  plane waves:    9081
 k-point  79 :   0.0263 0.0263 0.0263  plane waves:    9063
 k-point  80 :   0.0000 0.0000 0.0000  plane waves:    9045
 k-point  81 :   0.0000 0.0000 0.0000  plane waves:    9045
 k-point  82 :   0.0263 0.0263 0.0000  plane waves:    9069
 k-point  83 :   0.0526 0.0526 0.0000  plane waves:    9085
 k-point  84 :   0.0789 0.0789 0.0000  plane waves:    9093
 k-point  85 :   0.1053 0.1053 0.0000  plane waves:    9105
 k-point  86 :   0.1316 0.1316 0.0000  plane waves:    9109
 k-point  87 :   0.1579 0.1579 0.0000  plane waves:    9121
 k-point  88 :   0.1842 0.1842 0.0000  plane waves:    9132
 k-point  89 :   0.2105 0.2105 0.0000  plane waves:    9114
 k-point  90 :   0.2368 0.2368 0.0000  plane waves:    9108
 k-point  91 :   0.2632 0.2632 0.0000  plane waves:    9106
 k-point  92 :   0.2895 0.2895 0.0000  plane waves:    9124
 k-point  93 :   0.3158 0.3158 0.0000  plane waves:    9114
 k-point  94 :   0.3421 0.3421 0.0000  plane waves:    9100
 k-point  95 :   0.3684 0.3684 0.0000  plane waves:    9124
 k-point  96 :   0.3947 0.3947 0.0000  plane waves:    9132
 k-point  97 :   0.4211 0.4211 0.0000  plane waves:    9130
 k-point  98 :   0.4474 0.4474 0.0000  plane waves:    9126
 k-point  99 :   0.4737 0.4737 0.0000  plane waves:    9126
 k-point 100 :   0.5000 0.5000 0.0000  plane waves:    9124

 maximum and minimum number of plane-waves per node :      2320     2244

 maximum number of plane-waves:      9162
 maximum index in each direction: 
   IXMAX=   12   IYMAX=   12   IZMAX=   12
   IXMIN=  -13   IYMIN=  -13   IZMIN=  -13


 parallel 3D FFT for wavefunctions:
    minimum data exchange during FFTs selected (reduces bandwidth)
 parallel 3D FFT for charge:
    minimum data exchange during FFTs selected (reduces bandwidth)


 total amount of memory used by VASP MPI-rank0   129943. kBytes
=======================================================================

   base      :      30000. kBytes
   nonl-proj :      66187. kBytes
   fftplans  :       1139. kBytes
   grid      :       2859. kBytes
   one-center:         62. kBytes
   wavefun   :      29696. kBytes
 
     INWAV:  cpu time      2.0116: real time      2.0127
 initial charge density was supplied:
 number of electron      52.0000003 magnetization      11.9999757
 keeping initial charge density in first step


--------------------------------------------------------------------------------------------------------


 Maximum index for augmentation-charges          749 (set IRDMAX)


--------------------------------------------------------------------------------------------------------


 First call to EWALD:  gamma=   0.295
 Maximum number of real-space cells 3x 3x 3
 Maximum number of reciprocal cells 3x 3x 3

    FEWALD:  cpu time      0.0022: real time      0.0022


--------------------------------------- Ionic step        1  -------------------------------------------




--------------------------------------- Iteration      1(   1)  ---------------------------------------


    POTLOK:  cpu time      0.0242: real time      0.0256
    SETDIJ:  cpu time      0.0059: real time      0.0060
     EDDAV:  cpu time      4.2436: real time      4.2444
       DOS:  cpu time      0.0031: real time      0.0031
    --------------------------------------------
      LOOP:  cpu time      4.2769: real time      4.2791

 eigenvalue-minimisations  : 14104
 total energy-change (2. order) :-0.4112134E+02  (-0.2621106E+02)
 number of electron      52.0000003 magnetization      11.9999757
 augmentation part       52.0000003 magnetization      11.9999757

 Free energy of the ion-electron system (eV)
  ---------------------------------------------------
  alpha Z        PSCENC =        79.84661129
  Ewald energy   TEWEN  =     -2191.47868903
  -Hartree energ DENC   =      -586.63109321
  -exchange      EXHF   =         0.00000000
  -V(xc)+E(xc)   XCENC  =      -155.23070574
  PAW double counting   =      3762.07117295    -3552.45888436
  entropy T*S    EENTRO =        -0.00221644
  eigenvalues    EBANDS =        42.66102297
  atomic energy  EATOM  =      2560.10143906
  Solvation  Ediel_sol  =         0.00000000
  ---------------------------------------------------
  free energy    TOTEN  =       -41.12134251 eV

  energy without entropy =      -41.11912607  energy(sigma->0) =      -41.12023429


--------------------------------------------------------------------------------------------------------




--------------------------------------- Iteration      1(   2)  ---------------------------------------


     EDDAV:  cpu time      5.9555: real time      5.9560
       DOS:  cpu time      0.0023: real time      0.0023
    --------------------------------------------
      LOOP:  cpu time      5.9578: real time      5.9583

 eigenvalue-minimisations  : 21928
 total energy-change (2. order) :-0.4082862E+01  (-0.3903710E+01)
 number of electron      52.0000003 magnetization      11.9999757
 augmentation part       52.0000003 magnetization      11.9999757

 Free energy of the ion-electron system (eV)
  ---------------------------------------------------
  alpha Z        PSCENC =        79.84661129
  Ewald energy   TEWEN  =     -2191.47868903
  -Hartree energ DENC   =      -586.63109321
  -exchange      EXHF   =         0.00000000
  -V(xc)+E(xc)   XCENC  =      -155.23070574
  PAW double counting   =      3762.07117295    -3552.45888436
  entropy T*S    EENTRO =        -0.00299047
  eigenvalues    EBANDS =        38.57893480
  atomic energy  EATOM  =      2560.10143906
  Solvation  Ediel_sol  =         0.00000000
  ---------------------------------------------------
  free energy    TOTEN  =       -45.20420472 eV

  energy without entropy =      -45.20121425  energy(sigma->0) =      -45.20270948


--------------------------------------------------------------------------------------------------------




--------------------------------------- Iteration      1(   3)  ---------------------------------------


     EDDAV:  cpu time      5.5066: real time      5.5067
       DOS:  cpu time      0.0030: real time      0.0030
    --------------------------------------------
      LOOP:  cpu time      5.5096: real time      5.5096

 eigenvalue-minimisations  : 20008
 total energy-change (2. order) :-0.3604911E+00  (-0.2530362E+00)
 number of electron      52.0000003 magnetization      11.9999757
 augmentation part       52.0000003 magnetization      11.9999757

 Free energy of the ion-electron system (eV)
  ---------------------------------------------------
  alpha Z        PSCENC =        79.84661129
  Ewald energy   TEWEN  =     -2191.47868903
  -Hartree energ DENC   =      -586.63109321
  -exchange      EXHF   =         0.00000000
  -V(xc)+E(xc)   XCENC  =      -155.23070574
  PAW double counting   =      3762.07117295    -3552.45888436
  entropy T*S    EENTRO =        -0.00258823
  eigenvalues    EBANDS =        38.21804145
  atomic energy  EATOM  =      2560.10143906
  Solvation  Ediel_sol  =         0.00000000
  ---------------------------------------------------
  free energy    TOTEN  =       -45.56469582 eV

  energy without entropy =      -45.56210759  energy(sigma->0) =      -45.56340170


--------------------------------------------------------------------------------------------------------




--------------------------------------- Iteration      1(   4)  ---------------------------------------


     EDDAV:  cpu time      5.7101: real time      5.7104
       DOS:  cpu time      0.0022: real time      0.0022
    --------------------------------------------
      LOOP:  cpu time      5.7123: real time      5.7125

 eigenvalue-minimisations  : 20912
 total energy-change (2. order) :-0.4784178E-01  (-0.4778679E-01)
 number of electron      52.0000003 magnetization      11.9999757
 augmentation part       52.0000003 magnetization      11.9999757

 Free energy of the ion-electron system (eV)
  ---------------------------------------------------
  alpha Z        PSCENC =        79.84661129
  Ewald energy   TEWEN  =     -2191.47868903
  -Hartree energ DENC   =      -586.63109321
  -exchange      EXHF   =         0.00000000
  -V(xc)+E(xc)   XCENC  =      -155.23070574
  PAW double counting   =      3762.07117295    -3552.45888436
  entropy T*S    EENTRO =        -0.00258194
  eigenvalues    EBANDS =        38.17019339
  atomic energy  EATOM  =      2560.10143906
  Solvation  Ediel_sol  =         0.00000000
  ---------------------------------------------------
  free energy    TOTEN  =       -45.61253759 eV

  energy without entropy =      -45.60995565  energy(sigma->0) =      -45.61124662


--------------------------------------------------------------------------------------------------------




--------------------------------------- Iteration      1(   5)  ---------------------------------------


     EDDAV:  cpu time      5.4171: real time      5.4174
       DOS:  cpu time      0.0023: real time      0.0024
    --------------------------------------------
      LOOP:  cpu time      5.4194: real time      5.4198

 eigenvalue-minimisations  : 19568
 total energy-change (2. order) :-0.1089113E+00  (-0.1719762E-01)
 number of electron      52.0000003 magnetization      11.9999757
 augmentation part       52.0000003 magnetization      11.9999757

 Free energy of the ion-electron system (eV)
  ---------------------------------------------------
  alpha Z        PSCENC =        79.84661129
  Ewald energy   TEWEN  =     -2191.47868903
  -Hartree energ DENC   =      -586.63109321
  -exchange      EXHF   =         0.00000000
  -V(xc)+E(xc)   XCENC  =      -155.23070574
  PAW double counting   =      3762.07117295    -3552.45888436
  entropy T*S    EENTRO =        -0.00230190
  eigenvalues    EBANDS =        38.06100204
  atomic energy  EATOM  =      2560.10143906
  Solvation  Ediel_sol  =         0.00000000
  ---------------------------------------------------
  free energy    TOTEN  =       -45.72144891 eV

  energy without entropy =      -45.71914700  energy(sigma->0) =      -45.72029796


--------------------------------------------------------------------------------------------------------




--------------------------------------- Iteration      1(   6)  ---------------------------------------


     EDDAV:  cpu time      5.6070: real time      5.6099
       DOS:  cpu time      0.0021: real time      0.0021
    --------------------------------------------
      LOOP:  cpu time      5.6091: real time      5.6120

 eigenvalue-minimisations  : 20456
 total energy-change (2. order) :-0.2154181E-01  (-0.2154173E-01)
 number of electron      52.0000003 magnetization      11.9999757
 augmentation part       52.0000003 magnetization      11.9999757

 Free energy of the ion-electron system (eV)
  ---------------------------------------------------
  alpha Z        PSCENC =        79.84661129
  Ewald energy   TEWEN  =     -2191.47868903
  -Hartree energ DENC   =      -586.63109321
  -exchange      EXHF   =         0.00000000
  -V(xc)+E(xc)   XCENC  =      -155.23070574
  PAW double counting   =      3762.07117295    -3552.45888436
  entropy T*S    EENTRO =        -0.00230180
  eigenvalues    EBANDS =        38.03946012
  atomic energy  EATOM  =      2560.10143906
  Solvation  Ediel_sol  =         0.00000000
  ---------------------------------------------------
  free energy    TOTEN  =       -45.74299072 eV

  energy without entropy =      -45.74068892  energy(sigma->0) =      -45.74183982


--------------------------------------------------------------------------------------------------------




--------------------------------------- Iteration      1(   7)  ---------------------------------------


     EDDAV:  cpu time      4.8914: real time      4.8915
       DOS:  cpu time      0.0023: real time      0.0023
    --------------------------------------------
      LOOP:  cpu time      4.8937: real time      4.8938

 eigenvalue-minimisations  : 17120
 total energy-change (2. order) :-0.1504688E-01  (-0.1504669E-01)
 number of electron      52.0000003 magnetization      11.9999757
 augmentation part       52.0000003 magnetization      11.9999757

 Free energy of the ion-electron system (eV)
  ---------------------------------------------------
  alpha Z        PSCENC =        79.84661129
  Ewald energy   TEWEN  =     -2191.47868903
  -Hartree energ DENC   =      -586.63109321
  -exchange      EXHF   =         0.00000000
  -V(xc)+E(xc)   XCENC  =      -155.23070574
  PAW double counting   =      3762.07117295    -3552.45888436
  entropy T*S    EENTRO =        -0.00230178
  eigenvalues    EBANDS =        38.02441322
  atomic energy  EATOM  =      2560.10143906
  Solvation  Ediel_sol  =         0.00000000
  ---------------------------------------------------
  free energy    TOTEN  =       -45.75803760 eV

  energy without entropy =      -45.75573583  energy(sigma->0) =      -45.75688671


--------------------------------------------------------------------------------------------------------




--------------------------------------- Iteration      1(   8)  ---------------------------------------


     EDDAV:  cpu time      4.0956: real time      4.0957
       DOS:  cpu time      0.0023: real time      0.0023
    --------------------------------------------
      LOOP:  cpu time      4.0979: real time      4.0980

 eigenvalue-minimisations  : 13168
 total energy-change (2. order) :-0.1475220E-01  (-0.1475220E-01)
 number of electron      52.0000003 magnetization      11.9999757
 augmentation part       52.0000003 magnetization      11.9999757

 Free energy of the ion-electron system (eV)
  ---------------------------------------------------
  alpha Z        PSCENC =        79.84661129
  Ewald energy   TEWEN  =     -2191.47868903
  -Hartree energ DENC   =      -586.63109321
  -exchange      EXHF   =         0.00000000
  -V(xc)+E(xc)   XCENC  =      -155.23070574
  PAW double counting   =      3762.07117295    -3552.45888436
  entropy T*S    EENTRO =        -0.00230177
  eigenvalues    EBANDS =        38.00966102
  atomic energy  EATOM  =      2560.10143906
  Solvation  Ediel_sol  =         0.00000000
  ---------------------------------------------------
  free energy    TOTEN  =       -45.77278980 eV

  energy without entropy =      -45.77048802  energy(sigma->0) =      -45.77163891


--------------------------------------------------------------------------------------------------------




--------------------------------------- Iteration      1(   9)  ---------------------------------------


     EDDAV:  cpu time      3.7887: real time      3.7889
       DOS:  cpu time      0.0023: real time      0.0023
    --------------------------------------------
      LOOP:  cpu time      3.7910: real time      3.7912

 eigenvalue-minimisations  : 11768
 total energy-change (2. order) :-0.2736480E-02  (-0.2736480E-02)
 number of electron      52.0000003 magnetization      11.9999757
 augmentation part       52.0000003 magnetization      11.9999757

 Free energy of the ion-electron system (eV)
  ---------------------------------------------------
  alpha Z        PSCENC =        79.84661129
  Ewald energy   TEWEN  =     -2191.47868903
  -Hartree energ DENC   =      -586.63109321
  -exchange      EXHF   =         0.00000000
  -V(xc)+E(xc)   XCENC  =      -155.23070574
  PAW double counting   =      3762.07117295    -3552.45888436
  entropy T*S    EENTRO =        -0.00230177
  eigenvalues    EBANDS =        38.00692454
  atomic energy  EATOM  =      2560.10143906
  Solvation  Ediel_sol  =         0.00000000
  ---------------------------------------------------
  free energy    TOTEN  =       -45.77552628 eV

  energy without entropy =      -45.77322450  energy(sigma->0) =      -45.77437539


--------------------------------------------------------------------------------------------------------




--------------------------------------- Iteration      1(  10)  ---------------------------------------


     EDDAV:  cpu time      3.6926: real time      3.6927
       DOS:  cpu time      0.0023: real time      0.0023
    --------------------------------------------
      LOOP:  cpu time      3.6949: real time      3.6950

 eigenvalue-minimisations  : 11336
 total energy-change (2. order) :-0.4882267E-03  (-0.4882261E-03)
 number of electron      52.0000003 magnetization      11.9999757
 augmentation part       52.0000003 magnetization      11.9999757

 Free energy of the ion-electron system (eV)
  ---------------------------------------------------
  alpha Z        PSCENC =        79.84661129
  Ewald energy   TEWEN  =     -2191.47868903
  -Hartree energ DENC   =      -586.63109321
  -exchange      EXHF   =         0.00000000
  -V(xc)+E(xc)   XCENC  =      -155.23070574
  PAW double counting   =      3762.07117295    -3552.45888436
  entropy T*S    EENTRO =        -0.00230177
  eigenvalues    EBANDS =        38.00643632
  atomic energy  EATOM  =      2560.10143906
  Solvation  Ediel_sol  =         0.00000000
  ---------------------------------------------------
  free energy    TOTEN  =       -45.77601450 eV

  energy without entropy =      -45.77371273  energy(sigma->0) =      -45.77486362


--------------------------------------------------------------------------------------------------------




--------------------------------------- Iteration      1(  11)  ---------------------------------------


     EDDAV:  cpu time      3.5477: real time      3.5478
       DOS:  cpu time      0.0023: real time      0.0023
    --------------------------------------------
      LOOP:  cpu time      3.5500: real time      3.5501

 eigenvalue-minimisations  : 10656
 total energy-change (2. order) :-0.5148817E-03  (-0.5148820E-03)
 number of electron      52.0000003 magnetization      11.9999757
 augmentation part       52.0000003 magnetization      11.9999757

 Free energy of the ion-electron system (eV)
  ---------------------------------------------------
  alpha Z        PSCENC =        79.84661129
  Ewald energy   TEWEN  =     -2191.47868903
  -Hartree energ DENC   =      -586.63109321
  -exchange      EXHF   =         0.00000000
  -V(xc)+E(xc)   XCENC  =      -155.23070574
  PAW double counting   =      3762.07117295    -3552.45888436
  entropy T*S    EENTRO =        -0.00230177
  eigenvalues    EBANDS =        38.00592143
  atomic energy  EATOM  =      2560.10143906
  Solvation  Ediel_sol  =         0.00000000
  ---------------------------------------------------
  free energy    TOTEN  =       -45.77652938 eV

  energy without entropy =      -45.77422761  energy(sigma->0) =      -45.77537850


--------------------------------------------------------------------------------------------------------




--------------------------------------- Iteration      1(  12)  ---------------------------------------


     EDDAV:  cpu time      3.4625: real time      3.4626
       DOS:  cpu time      0.0023: real time      0.0023
    --------------------------------------------
      LOOP:  cpu time      3.4648: real time      3.4649

 eigenvalue-minimisations  : 10248
 total energy-change (2. order) :-0.1820582E-02  (-0.1820587E-02)
 number of electron      52.0000003 magnetization      11.9999757
 augmentation part       52.0000003 magnetization      11.9999757

 Free energy of the ion-electron system (eV)
  ---------------------------------------------------
  alpha Z        PSCENC =        79.84661129
  Ewald energy   TEWEN  =     -2191.47868903
  -Hartree energ DENC   =      -586.63109321
  -exchange      EXHF   =         0.00000000
  -V(xc)+E(xc)   XCENC  =      -155.23070574
  PAW double counting   =      3762.07117295    -3552.45888436
  entropy T*S    EENTRO =        -0.00230177
  eigenvalues    EBANDS =        38.00410085
  atomic energy  EATOM  =      2560.10143906
  Solvation  Ediel_sol  =         0.00000000
  ---------------------------------------------------
  free energy    TOTEN  =       -45.77834997 eV

  energy without entropy =      -45.77604819  energy(sigma->0) =      -45.77719908


--------------------------------------------------------------------------------------------------------




--------------------------------------- Iteration      1(  13)  ---------------------------------------


     EDDAV:  cpu time      3.3641: real time      3.3655
       DOS:  cpu time      0.0022: real time      0.0022
    --------------------------------------------
      LOOP:  cpu time      3.3663: real time      3.3678

 eigenvalue-minimisations  :  9792
 total energy-change (2. order) :-0.2869421E-03  (-0.2869430E-03)
 number of electron      52.0000003 magnetization      11.9999757
 augmentation part       52.0000003 magnetization      11.9999757

 Free energy of the ion-electron system (eV)
  ---------------------------------------------------
  alpha Z        PSCENC =        79.84661129
  Ewald energy   TEWEN  =     -2191.47868903
  -Hartree energ DENC   =      -586.63109321
  -exchange      EXHF   =         0.00000000
  -V(xc)+E(xc)   XCENC  =      -155.23070574
  PAW double counting   =      3762.07117295    -3552.45888436
  entropy T*S    EENTRO =        -0.00230177
  eigenvalues    EBANDS =        38.00381391
  atomic energy  EATOM  =      2560.10143906
  Solvation  Ediel_sol  =         0.00000000
  ---------------------------------------------------
  free energy    TOTEN  =       -45.77863691 eV

  energy without entropy =      -45.77633513  energy(sigma->0) =      -45.77748602


--------------------------------------------------------------------------------------------------------




--------------------------------------- Iteration      1(  14)  ---------------------------------------


     EDDAV:  cpu time      3.3423: real time      3.3452
       DOS:  cpu time      0.0023: real time      0.0023
    --------------------------------------------
      LOOP:  cpu time      3.3446: real time      3.3475

 eigenvalue-minimisations  :  9688
 total energy-change (2. order) :-0.9275192E-04  (-0.9275205E-04)
 number of electron      52.0000003 magnetization      11.9999757
 augmentation part       52.0000003 magnetization      11.9999757

 Free energy of the ion-electron system (eV)
  ---------------------------------------------------
  alpha Z        PSCENC =        79.84661129
  Ewald energy   TEWEN  =     -2191.47868903
  -Hartree energ DENC   =      -586.63109321
  -exchange      EXHF   =         0.00000000
  -V(xc)+E(xc)   XCENC  =      -155.23070574
  PAW double counting   =      3762.07117295    -3552.45888436
  entropy T*S    EENTRO =        -0.00230177
  eigenvalues    EBANDS =        38.00372116
  atomic energy  EATOM  =      2560.10143906
  Solvation  Ediel_sol  =         0.00000000
  ---------------------------------------------------
  free energy    TOTEN  =       -45.77872966 eV

  energy without entropy =      -45.77642789  energy(sigma->0) =      -45.77757877


--------------------------------------------------------------------------------------------------------




--------------------------------------- Iteration      1(  15)  ---------------------------------------


     EDDAV:  cpu time      3.2773: real time      3.2774
       DOS:  cpu time      0.0023: real time      0.0023
    --------------------------------------------
      LOOP:  cpu time      3.2795: real time      3.2796

 eigenvalue-minimisations  :  9384
 total energy-change (2. order) :-0.7537276E-04  (-0.7537233E-04)
 number of electron      52.0000003 magnetization      11.9999757
 augmentation part       52.0000003 magnetization      11.9999757

 Free energy of the ion-electron system (eV)
  ---------------------------------------------------
  alpha Z        PSCENC =        79.84661129
  Ewald energy   TEWEN  =     -2191.47868903
  -Hartree energ DENC   =      -586.63109321
  -exchange      EXHF   =         0.00000000
  -V(xc)+E(xc)   XCENC  =      -155.23070574
  PAW double counting   =      3762.07117295    -3552.45888436
  entropy T*S    EENTRO =        -0.00230177
  eigenvalues    EBANDS =        38.00364579
  atomic energy  EATOM  =      2560.10143906
  Solvation  Ediel_sol  =         0.00000000
  ---------------------------------------------------
  free energy    TOTEN  =       -45.77880503 eV

  energy without entropy =      -45.77650326  energy(sigma->0) =      -45.77765415


--------------------------------------------------------------------------------------------------------




--------------------------------------- Iteration      1(  16)  ---------------------------------------


     EDDAV:  cpu time      3.2557: real time      3.2557
       DOS:  cpu time      0.0022: real time      0.0022
    --------------------------------------------
      LOOP:  cpu time      3.2578: real time      3.2579

 eigenvalue-minimisations  :  9288
 total energy-change (2. order) :-0.5768612E-04  (-0.5768760E-04)
 number of electron      52.0000003 magnetization      11.9999757
 augmentation part       52.0000003 magnetization      11.9999757

 Free energy of the ion-electron system (eV)
  ---------------------------------------------------
  alpha Z        PSCENC =        79.84661129
  Ewald energy   TEWEN  =     -2191.47868903
  -Hartree energ DENC   =      -586.63109321
  -exchange      EXHF   =         0.00000000
  -V(xc)+E(xc)   XCENC  =      -155.23070574
  PAW double counting   =      3762.07117295    -3552.45888436
  entropy T*S    EENTRO =        -0.00230177
  eigenvalues    EBANDS =        38.00358810
  atomic energy  EATOM  =      2560.10143906
  Solvation  Ediel_sol  =         0.00000000
  ---------------------------------------------------
  free energy    TOTEN  =       -45.77886272 eV

  energy without entropy =      -45.77656094  energy(sigma->0) =      -45.77771183


--------------------------------------------------------------------------------------------------------




--------------------------------------- Iteration      1(  17)  ---------------------------------------


     EDDAV:  cpu time      3.2367: real time      3.2368
       DOS:  cpu time      0.0023: real time      0.0023
    --------------------------------------------
      LOOP:  cpu time      3.2390: real time      3.2391

 eigenvalue-minimisations  :  9128
 total energy-change (2. order) :-0.5338817E-04  (-0.5338898E-04)
 number of electron      52.0000003 magnetization      11.9999757
 augmentation part       52.0000003 magnetization      11.9999757

 Free energy of the ion-electron system (eV)
  ---------------------------------------------------
  alpha Z        PSCENC =        79.84661129
  Ewald energy   TEWEN  =     -2191.47868903
  -Hartree energ DENC   =      -586.63109321
  -exchange      EXHF   =         0.00000000
  -V(xc)+E(xc)   XCENC  =      -155.23070574
  PAW double counting   =      3762.07117295    -3552.45888436
  entropy T*S    EENTRO =        -0.00230177
  eigenvalues    EBANDS =        38.00353471
  atomic energy  EATOM  =      2560.10143906
  Solvation  Ediel_sol  =         0.00000000
  ---------------------------------------------------
  free energy    TOTEN  =       -45.77891611 eV

  energy without entropy =      -45.77661433  energy(sigma->0) =      -45.77776522


--------------------------------------------------------------------------------------------------------




--------------------------------------- Iteration      1(  18)  ---------------------------------------


     EDDAV:  cpu time      3.2267: real time      3.2268
       DOS:  cpu time      0.0022: real time      0.0022
    --------------------------------------------
      LOOP:  cpu time      3.2290: real time      3.2290

 eigenvalue-minimisations  :  9120
 total energy-change (2. order) :-0.4171162E-04  (-0.4171153E-04)
 number of electron      52.0000003 magnetization      11.9999757
 augmentation part       52.0000003 magnetization      11.9999757

 Free energy of the ion-electron system (eV)
  ---------------------------------------------------
  alpha Z        PSCENC =        79.84661129
  Ewald energy   TEWEN  =     -2191.47868903
  -Hartree energ DENC   =      -586.63109321
  -exchange      EXHF   =         0.00000000
  -V(xc)+E(xc)   XCENC  =      -155.23070574
  PAW double counting   =      3762.07117295    -3552.45888436
  entropy T*S    EENTRO =        -0.00230177
  eigenvalues    EBANDS =        38.00349300
  atomic energy  EATOM  =      2560.10143906
  Solvation  Ediel_sol  =         0.00000000
  ---------------------------------------------------
  free energy    TOTEN  =       -45.77895782 eV

  energy without entropy =      -45.77665604  energy(sigma->0) =      -45.77780693


--------------------------------------------------------------------------------------------------------




--------------------------------------- Iteration      1(  19)  ---------------------------------------


     EDDAV:  cpu time      3.1852: real time      3.1853
       DOS:  cpu time      0.0023: real time      0.0023
    --------------------------------------------
      LOOP:  cpu time      3.1875: real time      3.1876

 eigenvalue-minimisations  :  8960
 total energy-change (2. order) :-0.3765080E-04  (-0.3765080E-04)
 number of electron      52.0000003 magnetization      11.9999757
[...]
     18       5.0635      1.00000
     19       5.0635      1.00000
     20       5.0635      1.00000
     21       5.1645      0.04247
     22       5.1645      0.04247
     23       5.1645      0.04247
     24       5.1645      0.04247
     25       5.6628      0.00000
     26       5.6628      0.00000
     27       5.6628      0.00000
     28       5.6628      0.00000
     29       5.8555      0.00000
     30       5.8555      0.00000
     31       5.8555      0.00000
     32       5.8555      0.00000


--------------------------------------------------------------------------------------------------------


 soft charge-density along one line, spin component           1
         0         1         2         3         4         5         6         7         8         9
 total charge-density along one line
 
 soft charge-density along one line, spin component           2
         0         1         2         3         4         5         6         7         8         9
 total charge-density along one line
 
 pseudopotential strength for first ion, spin component:           1
 -6.985   0.000  -0.000  -0.000   0.000  -7.522   0.000  -0.000
  0.000  -6.985  -0.000   0.000   0.000   0.000  -7.522  -0.000
 -0.000  -0.000  -7.058   0.000  -0.000  -0.000  -0.000  -7.595
 -0.000   0.000   0.000  -6.985   0.000  -0.000   0.000   0.000
  0.000   0.000  -0.000   0.000  -7.058   0.000   0.000  -0.000
 -7.522   0.000  -0.000  -0.000   0.000  -8.035   0.000  -0.000
  0.000  -7.522  -0.000   0.000   0.000   0.000  -8.035  -0.000
 -0.000  -0.000  -7.595   0.000  -0.000  -0.000  -0.000  -8.108
 -0.000   0.000   0.000  -7.522   0.000  -0.000   0.000   0.000
  0.000   0.000  -0.000   0.000  -7.595   0.000   0.000  -0.000
 -0.000   0.000  -0.000  -0.000  -0.000  -0.000   0.000  -0.000
 -0.000   0.000  -0.000  -0.000  -0.000  -0.000   0.000  -0.000
 -0.000  -0.000   0.000   0.000   0.000  -0.000  -0.000   0.000
  0.000  -0.000   0.000  -0.000   0.000   0.000  -0.000   0.000
 -0.000   0.000   0.000   0.000  -0.000  -0.000   0.000   0.000
 -0.000  -0.000   0.000   0.000   0.000  -0.000  -0.000   0.000
  0.000  -0.000   0.000  -0.000   0.000   0.000  -0.000   0.000
 -0.000   0.000   0.000   0.000  -0.000  -0.000   0.000   0.000
 pseudopotential strength for first ion, spin component:           2
 -5.338  -0.000   0.000   0.000   0.000  -5.907  -0.000   0.000
 -0.000  -5.338   0.000  -0.000  -0.000  -0.000  -5.907   0.000
  0.000   0.000  -5.142  -0.000  -0.000   0.000   0.000  -5.711
  0.000  -0.000  -0.000  -5.338  -0.000   0.000  -0.000  -0.000
  0.000  -0.000  -0.000  -0.000  -5.142   0.000  -0.000  -0.000
 -5.907  -0.000   0.000   0.000   0.000  -6.451  -0.000   0.000
 -0.000  -5.907   0.000  -0.000  -0.000  -0.000  -6.451   0.000
  0.000   0.000  -5.711  -0.000  -0.000   0.000   0.000  -6.255
  0.000  -0.000  -0.000  -5.907  -0.000   0.000  -0.000  -0.000
  0.000  -0.000  -0.000  -0.000  -5.711   0.000  -0.000  -0.000
  0.000  -0.000  -0.000   0.000  -0.000   0.000  -0.000  -0.000
  0.000  -0.000  -0.000   0.000  -0.000   0.000  -0.000  -0.000
 -0.000   0.000  -0.000   0.000  -0.000  -0.000   0.000  -0.000
  0.000   0.000   0.000  -0.000   0.000   0.000   0.000   0.000
  0.000   0.000   0.000   0.000  -0.000   0.000   0.000   0.000
 -0.000   0.000  -0.000   0.000  -0.000  -0.000   0.000  -0.000
  0.000   0.000   0.000  -0.000   0.000   0.000   0.000   0.000
  0.000   0.000   0.000   0.000  -0.000   0.000   0.000   0.000
 total augmentation occupancy for first ion, spin component:           1
  1.200   0.000   0.000   0.000   0.000   0.000   0.000   0.000   0.000   0.000   0.000   0.000   0.000   0.000   0.000   0.000
  0.000   1.200   0.000   0.000   0.000   0.000   0.000   0.000   0.000   0.000   0.000   0.000   0.000   0.000   0.000   0.000
  0.000   0.000   1.200   0.000   0.000   0.000   0.000   0.000   0.000   0.000   0.000   0.000   0.000   0.000   0.000   0.000
  0.000   0.000   0.000   1.200   0.000   0.000   0.000   0.000   0.000   0.000   0.000   0.000   0.000   0.000   0.000   0.000
  0.000   0.000   0.000   0.000   1.200   0.000   0.000   0.000   0.000   0.000   0.000   0.000   0.000   0.000   0.000   0.000
  0.000   0.000   0.000   0.000   0.000   0.000   0.000   0.000   0.000   0.000   0.000   0.000   0.000   0.000   0.000   0.000
  0.000   0.000   0.000   0.000   0.000   0.000   0.000   0.000   0.000   0.000   0.000   0.000   0.000   0.000   0.000   0.000
  0.000   0.000   0.000   0.000   0.000   0.000   0.000   0.000   0.000   0.000   0.000   0.000   0.000   0.000   0.000   0.000
  0.000   0.000   0.000   0.000   0.000   0.000   0.000   0.000   0.000   0.000   0.000   0.000   0.000   0.000   0.000   0.000
  0.000   0.000   0.000   0.000   0.000   0.000   0.000   0.000   0.000   0.000   0.000   0.000   0.000   0.000   0.000   0.000
  0.000   0.000   0.000   0.000   0.000   0.000   0.000   0.000   0.000   0.000   1.000   0.000   0.000   0.000   0.000   0.000
  0.000   0.000   0.000   0.000   0.000   0.000   0.000   0.000   0.000   0.000   0.000   0.000   0.000   0.000   0.000   0.000
  0.000   0.000   0.000   0.000   0.000   0.000   0.000   0.000   0.000   0.000   0.000   0.000   0.000   0.000   0.000   0.000
  0.000   0.000   0.000   0.000   0.000   0.000   0.000   0.000   0.000   0.000   0.000   0.000   0.000   0.000   0.000   0.000
  0.000   0.000   0.000   0.000   0.000   0.000   0.000   0.000   0.000   0.000   0.000   0.000   0.000   0.000   0.000   0.000
  0.000   0.000   0.000   0.000   0.000   0.000   0.000   0.000   0.000   0.000   0.000   0.000   0.000   0.000   0.000   0.000
  0.000   0.000   0.000   0.000   0.000   0.000   0.000   0.000   0.000   0.000   0.000   0.000   0.000   0.000   0.000   0.000
  0.000   0.000   0.000   0.000   0.000   0.000   0.000   0.000   0.000   0.000   0.000   0.000   0.000   0.000   0.000   0.000
 total augmentation occupancy for first ion, spin component:           2
  0.514   0.000   0.000   0.000   0.000   0.000   0.000   0.000   0.000   0.000   0.000   0.000   0.000   0.000   0.000   0.000
  0.000   0.514   0.000   0.000   0.000   0.000   0.000   0.000   0.000   0.000   0.000   0.000   0.000   0.000   0.000   0.000
  0.000   0.000   0.514   0.000   0.000   0.000   0.000   0.000   0.000   0.000   0.000   0.000   0.000   0.000   0.000   0.000
  0.000   0.000   0.000   0.514   0.000   0.000   0.000   0.000   0.000   0.000   0.000   0.000   0.000   0.000   0.000   0.000
  0.000   0.000   0.000   0.000   0.514   0.000   0.000   0.000   0.000   0.000   0.000   0.000   0.000   0.000   0.000   0.000
  0.000   0.000   0.000   0.000   0.000   0.000   0.000   0.000   0.000   0.000   0.000   0.000   0.000   0.000   0.000   0.000
  0.000   0.000   0.000   0.000   0.000   0.000   0.000   0.000   0.000   0.000   0.000   0.000   0.000   0.000   0.000   0.000
  0.000   0.000   0.000   0.000   0.000   0.000   0.000   0.000   0.000   0.000   0.000   0.000   0.000   0.000   0.000   0.000
  0.000   0.000   0.000   0.000   0.000   0.000   0.000   0.000   0.000   0.000   0.000   0.000   0.000   0.000   0.000   0.000
  0.000   0.000   0.000   0.000   0.000   0.000   0.000   0.000   0.000   0.000   0.000   0.000   0.000   0.000   0.000   0.000
  0.000   0.000   0.000   0.000   0.000   0.000   0.000   0.000   0.000   0.000   0.429   0.000   0.000   0.000   0.000   0.000
  0.000   0.000   0.000   0.000   0.000   0.000   0.000   0.000   0.000   0.000   0.000   0.000   0.000   0.000   0.000   0.000
  0.000   0.000   0.000   0.000   0.000   0.000   0.000   0.000   0.000   0.000   0.000   0.000   0.000   0.000   0.000   0.000
  0.000   0.000   0.000   0.000   0.000   0.000   0.000   0.000   0.000   0.000   0.000   0.000   0.000   0.000   0.000   0.000
  0.000   0.000   0.000   0.000   0.000   0.000   0.000   0.000   0.000   0.000   0.000   0.000   0.000   0.000   0.000   0.000
  0.000   0.000   0.000   0.000   0.000   0.000   0.000   0.000   0.000   0.000   0.000   0.000   0.000   0.000   0.000   0.000
  0.000   0.000   0.000   0.000   0.000   0.000   0.000   0.000   0.000   0.000   0.000   0.000   0.000   0.000   0.000   0.000
  0.000   0.000   0.000   0.000   0.000   0.000   0.000   0.000   0.000   0.000   0.000   0.000   0.000   0.000   0.000   0.000


------------------------ aborting loop EDIFF was not reached (unconverged)  ----------------------------


 -----------------------------------------------------------------------------
|                                                                             |
|           W    W    AA    RRRRR   N    N  II  N    N   GGGG   !!!           |
|           W    W   A  A   R    R  NN   N  II  NN   N  G    G  !!!           |
|           W    W  A    A  R    R  N N  N  II  N N  N  G       !!!           |
|           W WW W  AAAAAA  RRRRR   N  N N  II  N  N N  G  GGG   !            |
|           WW  WW  A    A  R   R   N   NN  II  N   NN  G    G                |
|           W    W  A    A  R    R  N    N  II  N    N   GGGG   !!!           |
|                                                                             |
|     The electronic self-consistency was not achieved in the given           |
|     number of steps (NELM). The forces and other quantities evaluated       |
|     might not be reliable so examine the results carefully. If you find     |
|     spurious results, we suggest increasing NELM, if you were close to      |
|     convergence or switching to a different ALGO or adjusting the           |
|     density mixing parameters otherwise.                                    |
|                                                                             |
 -----------------------------------------------------------------------------

 -----------------------------------------------------------------------------
|                                                                             |
|           W    W    AA    RRRRR   N    N  II  N    N   GGGG   !!!           |
|           W    W   A  A   R    R  NN   N  II  NN   N  G    G  !!!           |
|           W    W  A    A  R    R  N N  N  II  N N  N  G       !!!           |
|           W WW W  AAAAAA  RRRRR   N  N N  II  N  N N  G  GGG   !            |
|           WW  WW  A    A  R   R   N   NN  II  N   NN  G    G                |
|           W    W  A    A  R    R  N    N  II  N    N   GGGG   !!!           |
|                                                                             |
|     Your highest band is occupied at some k-points! Unless you are          |
|     performing a calculation for an insulator or semiconductor, without     |
|     unoccupied bands, you have included TOO FEW BANDS!! Please increase     |
|     the parameter NBANDS in file INCAR to ensure that the highest band      |
|     is unoccupied at all k-points. It is always recommended to include      |
|     a few unoccupied bands to accelerate the convergence of                 |
|     molecular-dynamics runs (even for insulators or semiconductors),        |
|     since the presence of unoccupied bands improves wavefunction            |
|     prediction and helps to suppress 'band-crossings'.                      |
|                                                                             |
 -----------------------------------------------------------------------------




 total charge

# of ion       s       p       d       tot
------------------------------------------
    1        0.287   0.247   5.084   5.618
    2        0.287   0.247   5.084   5.618
    3        0.287   0.247   5.084   5.618
    4        0.287   0.247   5.084   5.618
    5        1.343   2.051   0.063   3.457
    6        1.343   2.051   0.063   3.457
    7        1.343   2.051   0.063   3.457
    8        1.343   2.051   0.063   3.457
--------------------------------------------------
tot          6.517   9.192  20.588  36.297



 magnetization (x)

# of ion       s       p       d       tot
------------------------------------------
    1        0.040   0.026   2.910   2.977
    2        0.040   0.026   2.910   2.977
    3        0.040   0.026   2.910   2.977
    4        0.040   0.026   2.910   2.977
    5       -0.001  -0.140   0.006  -0.135
    6       -0.001  -0.140   0.006  -0.135
    7       -0.001  -0.140   0.006  -0.135
    8       -0.001  -0.140   0.006  -0.135
--------------------------------------------------
tot          0.156  -0.455  11.667  11.368
 
    CHARGE:  cpu time      0.1989: real time      0.1989
    FORLOC:  cpu time      0.0009: real time      0.0009
    FORNL :  cpu time      1.2769: real time      1.2769
    STRESS:  cpu time      3.8796: real time      3.8796
    FORCOR:  cpu time      0.0212: real time      0.0212
    FORHAR:  cpu time      0.0025: real time      0.0026
    OFIELD:  cpu time      0.0001: real time      0.0001

  FORCE on cell =-STRESS in cart. coord.  units (eV):
  Direction    XX          YY          ZZ          XY          YZ          ZX
  --------------------------------------------------------------------------------------
  Alpha Z    79.84661    79.84661    79.84661
  Ewald    -730.49413  -730.49413  -730.49413    -0.00000     0.00000     0.00000
  Hartree   195.76987   195.76987   195.76987    -0.00000    -0.00000    -0.00000
  E(xc)    -227.86668  -227.86668  -227.86668    -0.00000    -0.00000     0.00000
  Local    -155.27454  -155.27454  -155.27454    -0.00000    -0.00000     0.00000
  n-local   339.61283   341.05161   344.59448     0.00777     0.50530     0.64939
  augment    17.01762    17.01762    17.01762     0.00000     0.00000    -0.00000
  Kinetic   478.90467   476.01436   481.32560     0.74144     1.63786     2.44814
  Fock        0.00000     0.00000     0.00000     0.00000     0.00000     0.00000
  -------------------------------------------------------------------------------------
  Total      -0.50008    -0.50008    -0.50008     0.00000    -0.00000     0.00000
  in kB      -3.69689    -3.69689    -3.69689     0.00000    -0.00000     0.00000
  external pressure =       -3.70 kB  Pullay stress =        0.00 kB


 VOLUME and BASIS-vectors are now :
 -----------------------------------------------------------------------------
  energy-cutoff  :      700.00
  volume of cell :      216.73
      direct lattice vectors                 reciprocal lattice vectors
     6.006716828 -0.000000000  0.000000000     0.166480297 -0.000000000  0.000000000
     0.000000000  6.006716828  0.000000000     0.000000000  0.166480297  0.000000000
     0.000000000  0.000000000  6.006716828    -0.000000000 -0.000000000  0.166480297

  length of vectors
     6.006716828  6.006716828  6.006716828     0.166480297  0.166480297  0.166480297


 FORCES acting on ions
    electron-ion (+dipol)            ewald-force                    non-local-force                 convergence-correction
 -----------------------------------------------------------------------------------------------
   -.887E-13 0.825E-14 -.104E-13   0.711E-14 0.142E-13 0.426E-13   -.664E-18 0.192E-17 -.130E-17   -.495E-13 0.277E-13 -.966E-13
   -.875E-13 -.530E-13 -.543E-13   0.711E-14 0.142E-13 0.426E-13   -.153E-17 0.167E-17 0.150E-18   -.251E-13 0.835E-13 0.115E-12
   -.112E-12 0.109E-13 -.138E-11   0.711E-14 0.142E-13 0.426E-13   -.109E-17 0.241E-17 -.347E-17   0.211E-12 -.320E-13 0.995E-13
   -.137E-12 -.114E-12 -.152E-11   0.711E-14 0.142E-13 0.426E-13   0.180E-17 0.493E-20 0.228E-17   0.206E-12 0.497E-13 -.520E-13
   0.123E-12 -.102E-11 0.541E-12   -.416E-14 -.144E-13 -.422E-13   0.455E-18 -.127E-17 0.219E-18   -.865E-14 -.536E-13 0.215E-13
   0.121E-12 0.145E-12 -.733E-12   -.409E-14 -.132E-13 -.430E-13   -.149E-18 -.567E-18 0.137E-18   -.116E-13 -.149E-13 -.128E-13
   0.769E-13 0.173E-12 0.102E-12   -.999E-14 -.152E-13 -.434E-13   0.430E-18 -.421E-18 -.190E-18   0.391E-14 -.160E-13 -.237E-13
   0.781E-13 0.334E-12 0.150E-12   -.992E-14 -.140E-13 -.418E-13   0.105E-17 -.570E-18 0.525E-18   0.291E-14 -.733E-15 0.221E-15
 -----------------------------------------------------------------------------------------------
   -.272E-13 -.516E-12 -.290E-11   0.258E-15 -.837E-16 0.655E-16   0.309E-18 0.317E-17 -.166E-17   0.330E-12 0.437E-13 0.512E-13
 
 
 POSITION                                       TOTAL-FORCE (eV/Angst)
 -----------------------------------------------------------------------------------
      0.00000      0.00000      0.00000        -0.000000      0.000000     -0.000000
      0.00000      3.00336      3.00336         0.000000      0.000000      0.000000
      3.00336     -0.00000      3.00336         0.000000     -0.000000      0.000000
      3.00336      3.00336      0.00000        -0.000000      0.000000     -0.000000
      4.50504      1.50168      4.50504        -0.000000     -0.000000      0.000000
      4.50504      4.50504      1.50168        -0.000000     -0.000000      0.000000
      1.50168      1.50168      1.50168        -0.000000     -0.000000      0.000000
      1.50168      4.50504      4.50504         0.000000     -0.000000     -0.000000
 -----------------------------------------------------------------------------------
    total drift:                                0.000000     -0.000000     -0.000000


--------------------------------------------------------------------------------------------------------



  FREE ENERGIE OF THE ION-ELECTRON SYSTEM (eV)
  ---------------------------------------------------
  free  energy   TOTEN  =       -45.78423893 eV

  energy  without entropy=      -45.78193716  energy(sigma->0) =      -45.78308804
 


--------------------------------------------------------------------------------------------------------


    POTLOK:  cpu time      0.0268: real time      0.0269


--------------------------------------------------------------------------------------------------------


 writing wavefunctions
     LOOP+:  cpu time    325.0025: real time    325.4957
    4ORBIT:  cpu time      0.0000: real time      0.0000



 total charge

# of ion       s       p       d       tot
------------------------------------------
    1        0.287   0.247   5.084   5.618
    2        0.287   0.247   5.084   5.618
    3        0.287   0.247   5.084   5.618
    4        0.287   0.247   5.084   5.618
    5        1.343   2.051   0.063   3.457
    6        1.343   2.051   0.063   3.457
    7        1.343   2.051   0.063   3.457
    8        1.343   2.051   0.063   3.457
--------------------------------------------------
tot          6.517   9.192  20.588  36.297



 magnetization (x)

# of ion       s       p       d       tot
------------------------------------------
    1        0.040   0.026   2.910   2.977
    2        0.040   0.026   2.910   2.977
    3        0.040   0.026   2.910   2.977
    4        0.040   0.026   2.910   2.977
    5       -0.001  -0.140   0.006  -0.135
    6       -0.001  -0.140   0.006  -0.135
    7       -0.001  -0.140   0.006  -0.135
    8       -0.001  -0.140   0.006  -0.135
--------------------------------------------------
tot          0.156  -0.455  11.667  11.368
 

 total amount of memory used by VASP MPI-rank0   129943. kBytes
=======================================================================

   base      :      30000. kBytes
   nonl-proj :      66187. kBytes
   fftplans  :       1139. kBytes
   grid      :       2859. kBytes
   one-center:         62. kBytes
   wavefun   :      29696. kBytes
 
  
  
 General timing and accounting informations for this job:
 ========================================================
  
                  Total CPU time used (sec):      331.067
                            User time (sec):      323.358
                          System time (sec):        7.709
                         Elapsed time (sec):      333.208
  
                   Maximum memory used (kb):      311500.
                   Average memory used (kb):          N/A
  
                          Minor page faults:        54384
                          Major page faults:            0
                 Voluntary context switches:         3050
